REMARK SMILES COc1ccc2nc([S@@](=O)Cc3ncc(C)c(OC)c3C)[nH]c2c1
REMARK SMILES IDX 11 1 9 2 10 3 8 4 3 5 24 6 4 7 23 8 5 9 6 10 22 11 7 12 2 14
REMARK SMILES IDX 1 15 12 16 13 17 20 18 14 19 17 20 21 21 15 22 16 23 18 24
REMARK SMILES IDX 19 25
REMARK H PARENT 22 13
REMARK Flexibility Score: inf
ROOT
ATOM      1  C   UNL A   1       7.909  -0.602   6.005  1.00  0.00     0.170 C 
ENDROOT
BRANCH   1   2
ATOM      2  S   UNL A   1       7.059  -2.184   5.642  1.00  0.00     0.095 S 
ATOM      3  O   UNL A   1       5.968  -1.516   4.788  1.00  0.00    -0.251 OA
BRANCH   2   4
ATOM      4  C   UNL A   1       6.058  -2.169   7.137  1.00  0.00     0.197 A 
ATOM      5  C   UNL A   1       4.024  -2.750  11.080  1.00  0.00     0.121 A 
ATOM      6  C   UNL A   1       5.049  -3.305  10.286  1.00  0.00     0.074 A 
ATOM      7  C   UNL A   1       3.301  -1.616  10.602  1.00  0.00     0.049 A 
ATOM      8  C   UNL A   1       5.312  -2.715   9.053  1.00  0.00     0.070 A 
ATOM      9  C   UNL A   1       3.600  -1.050   9.347  1.00  0.00     0.034 A 
ATOM     10  C   UNL A   1       4.617  -1.634   8.601  1.00  0.00     0.090 A 
ATOM     11  N   UNL A   1       6.226  -3.063   8.139  1.00  0.00    -0.331 N 
ATOM     12  N   UNL A   1       5.070  -1.270   7.388  1.00  0.00    -0.220 NA
ATOM     13  H   UNL A   1       6.915  -3.846   8.187  1.00  0.00     0.169 HD
BRANCH   5  14
ATOM     14  O   UNL A   1       3.764  -3.326  12.282  1.00  0.00    -0.497 OA
ATOM     15  C   UNL A   1       2.799  -2.915  13.178  1.00  0.00     0.278 C 
ENDBRANCH   5  14
ENDBRANCH   2   4
ENDBRANCH   1   2
BRANCH   1  16
ATOM     16  C   UNL A   1       8.868  -0.774   7.160  1.00  0.00     0.060 A 
ATOM     17  N   UNL A   1       9.833  -1.716   7.027  1.00  0.00    -0.259 NA
ATOM     18  C   UNL A   1       8.804  -0.006   8.349  1.00  0.00     0.014 A 
ATOM     19  C   UNL A   1      10.747  -1.968   7.989  1.00  0.00     0.118 A 
ATOM     20  C   UNL A   1       9.749  -0.239   9.383  1.00  0.00     0.128 A 
ATOM     21  C   UNL A   1       7.741   1.060   8.514  1.00  0.00     0.050 C 
ATOM     22  C   UNL A   1      10.744  -1.250   9.193  1.00  0.00     0.010 A 
ATOM     23  C   UNL A   1      11.806  -1.608  10.202  1.00  0.00     0.050 C 
BRANCH  20  24
ATOM     24  O   UNL A   1       9.631   0.539  10.500  1.00  0.00    -0.496 OA
ATOM     25  C   UNL A   1      10.372   0.584  11.660  1.00  0.00     0.278 C 
ENDBRANCH  20  24
ENDBRANCH   1  16
TORSDOF 5
