MODEL 1
REMARK VINA RESULT:     0.000      0.000      0.000
REMARK INTER + INTRA:          -0.961
REMARK INTER:                   0.000
REMARK INTRA:                  -0.961
REMARK UNBOUND:                -0.961
REMARK SMILES COc1ccc2nc([S@@](=O)Cc3ncc(C)c(OC)c3C)[nH]c2c1
REMARK SMILES IDX 11 1 9 2 10 3 8 4 3 5 24 6 4 7 23 8 5 9 6 10 22 11 7 12 2 14
REMARK SMILES IDX 1 15 12 16 13 17 20 18 14 19 17 20 21 21 15 22 16 23 18 24
REMARK SMILES IDX 19 25
REMARK H PARENT 22 13
REMARK Flexibility Score: inf
ROOT
ATOM      1  C   UNL A   1      -1.111   3.986  -0.564  1.00  0.00     0.170 C 
ENDROOT
BRANCH   1   2
ATOM      2  S   UNL A   1      -1.864   3.282   0.951  1.00  0.00     0.095 S 
ATOM      3  O   UNL A   1      -1.164   4.286   1.884  1.00  0.00    -0.251 OA
BRANCH   2   4
ATOM      4  C   UNL A   1      -0.603   2.019   1.178  1.00  0.00     0.197 A 
ATOM      5  C   UNL A   1       1.984  -1.623   1.445  1.00  0.00     0.121 A 
ATOM      6  C   UNL A   1       0.683  -1.231   1.067  1.00  0.00     0.074 A 
ATOM      7  C   UNL A   1       2.903  -0.641   1.922  1.00  0.00     0.049 A 
ATOM      8  C   UNL A   1       0.347   0.115   1.180  1.00  0.00     0.070 A 
ATOM      9  C   UNL A   1       2.522   0.712   2.021  1.00  0.00     0.034 A 
ATOM     10  C   UNL A   1       1.228   1.048   1.638  1.00  0.00     0.090 A 
ATOM     11  N   UNL A   1      -0.813   0.714   0.885  1.00  0.00    -0.331 N 
ATOM     12  N   UNL A   1       0.649   2.262   1.648  1.00  0.00    -0.220 NA
ATOM     13  H   UNL A   1      -1.684   0.276   0.511  1.00  0.00     0.169 HD
BRANCH   5  14
ATOM     14  O   UNL A   1       2.311  -2.936   1.339  1.00  0.00    -0.497 OA
ATOM     15  C   UNL A   1       1.586  -3.893   0.660  1.00  0.00     0.278 C 
ENDBRANCH   5  14
ENDBRANCH   2   4
ENDBRANCH   1   2
BRANCH   1  16
ATOM     16  C   UNL A   1      -0.879   2.900  -1.588  1.00  0.00     0.060 A 
ATOM     17  N   UNL A   1      -1.957   2.178  -1.979  1.00  0.00    -0.259 NA
ATOM     18  C   UNL A   1       0.391   2.613  -2.148  1.00  0.00     0.014 A 
ATOM     19  C   UNL A   1      -1.879   1.178  -2.884  1.00  0.00     0.118 A 
ATOM     20  C   UNL A   1       0.514   1.571  -3.105  1.00  0.00     0.128 A 
ATOM     21  C   UNL A   1       1.607   3.415  -1.734  1.00  0.00     0.050 C 
ATOM     22  C   UNL A   1      -0.656   0.836  -3.478  1.00  0.00     0.010 A 
ATOM     23  C   UNL A   1      -0.676  -0.295  -4.475  1.00  0.00     0.050 C 
BRANCH  20  24
ATOM     24  O   UNL A   1       1.766   1.351  -3.605  1.00  0.00    -0.496 OA
ATOM     25  C   UNL A   1       2.332   1.679  -4.817  1.00  0.00     0.278 C 
ENDBRANCH  20  24
ENDBRANCH   1  16
TORSDOF 5
ENDMDL
MODEL 2
REMARK VINA RESULT:     0.000      2.829      4.435
REMARK INTER + INTRA:          -0.961
REMARK INTER:                   0.000
REMARK INTRA:                  -0.961
REMARK UNBOUND:                -0.961
REMARK SMILES COc1ccc2nc([S@@](=O)Cc3ncc(C)c(OC)c3C)[nH]c2c1
REMARK SMILES IDX 11 1 9 2 10 3 8 4 3 5 24 6 4 7 23 8 5 9 6 10 22 11 7 12 2 14
REMARK SMILES IDX 1 15 12 16 13 17 20 18 14 19 17 20 21 21 15 22 16 23 18 24
REMARK SMILES IDX 19 25
REMARK H PARENT 22 13
REMARK Flexibility Score: inf
ROOT
ATOM      1  C   UNL A   1      -1.406   4.120  -4.443  1.00  0.00     0.170 C 
ENDROOT
BRANCH   1   2
ATOM      2  S   UNL A   1       0.080   4.878  -3.685  1.00  0.00     0.095 S 
ATOM      3  O   UNL A   1       0.958   4.636  -4.924  1.00  0.00    -0.251 OA
BRANCH   2   4
ATOM      4  C   UNL A   1       0.623   3.371  -2.865  1.00  0.00     0.197 A 
ATOM      5  C   UNL A   1       1.674  -0.039  -0.166  1.00  0.00     0.121 A 
ATOM      6  C   UNL A   1       1.089   1.244  -0.130  1.00  0.00     0.074 A 
ATOM      7  C   UNL A   1       2.134  -0.567  -1.409  1.00  0.00     0.049 A 
ATOM      8  C   UNL A   1       0.986   1.948  -1.326  1.00  0.00     0.070 A 
ATOM      9  C   UNL A   1       2.010   0.180  -2.597  1.00  0.00     0.034 A 
ATOM     10  C   UNL A   1       1.429   1.440  -2.510  1.00  0.00     0.090 A 
ATOM     11  N   UNL A   1       0.474   3.167  -1.536  1.00  0.00    -0.331 N 
ATOM     12  N   UNL A   1       1.211   2.323  -3.500  1.00  0.00    -0.220 NA
ATOM     13  H   UNL A   1       0.053   3.815  -0.834  1.00  0.00     0.169 HD
BRANCH   5  14
ATOM     14  O   UNL A   1       1.778  -0.727   1.001  1.00  0.00    -0.497 OA
ATOM     15  C   UNL A   1       1.141  -0.407   2.181  1.00  0.00     0.278 C 
ENDBRANCH   5  14
ENDBRANCH   2   4
ENDBRANCH   1   2
BRANCH   1  16
ATOM     16  C   UNL A   1      -2.246   3.441  -3.386  1.00  0.00     0.060 A 
ATOM     17  N   UNL A   1      -2.674   4.205  -2.352  1.00  0.00    -0.259 NA
ATOM     18  C   UNL A   1      -2.600   2.070  -3.432  1.00  0.00     0.014 A 
ATOM     19  C   UNL A   1      -3.427   3.716  -1.343  1.00  0.00     0.118 A 
ATOM     20  C   UNL A   1      -3.394   1.518  -2.391  1.00  0.00     0.128 A 
ATOM     21  C   UNL A   1      -2.143   1.200  -4.584  1.00  0.00     0.050 C 
ATOM     22  C   UNL A   1      -3.814   2.369  -1.320  1.00  0.00     0.010 A 
ATOM     23  C   UNL A   1      -4.655   1.922  -0.150  1.00  0.00     0.050 C 
BRANCH  20  24
ATOM     24  O   UNL A   1      -3.701   0.191  -2.500  1.00  0.00    -0.496 OA
ATOM     25  C   UNL A   1      -4.864  -0.446  -2.873  1.00  0.00     0.278 C 
ENDBRANCH  20  24
ENDBRANCH   1  16
TORSDOF 5
ENDMDL
MODEL 3
REMARK VINA RESULT:     0.000      3.693      6.797
REMARK INTER + INTRA:          -0.961
REMARK INTER:                   0.000
REMARK INTRA:                  -0.961
REMARK UNBOUND:                -0.961
REMARK SMILES COc1ccc2nc([S@@](=O)Cc3ncc(C)c(OC)c3C)[nH]c2c1
REMARK SMILES IDX 11 1 9 2 10 3 8 4 3 5 24 6 4 7 23 8 5 9 6 10 22 11 7 12 2 14
REMARK SMILES IDX 1 15 12 16 13 17 20 18 14 19 17 20 21 21 15 22 16 23 18 24
REMARK SMILES IDX 19 25
REMARK H PARENT 22 13
REMARK Flexibility Score: inf
ROOT
ATOM      1  C   UNL A   1       2.989  -2.892   0.312  1.00  0.00     0.170 C 
ENDROOT
BRANCH   1   2
ATOM      2  S   UNL A   1       2.665  -3.975  -1.130  1.00  0.00     0.095 S 
ATOM      3  O   UNL A   1       3.764  -3.327  -1.989  1.00  0.00    -0.251 OA
BRANCH   2   4
ATOM      4  C   UNL A   1       1.362  -2.940  -1.813  1.00  0.00     0.197 A 
ATOM      5  C   UNL A   1      -2.376  -0.913  -3.206  1.00  0.00     0.121 A 
ATOM      6  C   UNL A   1      -1.950  -2.071  -2.522  1.00  0.00     0.074 A 
ATOM      7  C   UNL A   1      -1.407   0.026  -3.670  1.00  0.00     0.049 A 
ATOM      8  C   UNL A   1      -0.583  -2.249  -2.331  1.00  0.00     0.070 A 
ATOM      9  C   UNL A   1      -0.032  -0.194  -3.455  1.00  0.00     0.034 A 
ATOM     10  C   UNL A   1       0.338  -1.351  -2.778  1.00  0.00     0.090 A 
ATOM     11  N   UNL A   1       0.050  -3.258  -1.718  1.00  0.00    -0.331 N 
ATOM     12  N   UNL A   1       1.578  -1.767  -2.464  1.00  0.00    -0.220 NA
ATOM     13  H   UNL A   1      -0.372  -4.099  -1.267  1.00  0.00     0.169 HD
BRANCH   5  14
ATOM     14  O   UNL A   1      -3.710  -0.738  -3.396  1.00  0.00    -0.497 OA
ATOM     15  C   UNL A   1      -4.711  -1.449  -2.768  1.00  0.00     0.278 C 
ENDBRANCH   5  14
ENDBRANCH   2   4
ENDBRANCH   1   2
BRANCH   1  16
ATOM     16  C   UNL A   1       1.707  -2.625   1.066  1.00  0.00     0.060 A 
ATOM     17  N   UNL A   1       1.023  -3.701   1.523  1.00  0.00    -0.259 NA
ATOM     18  C   UNL A   1       1.203  -1.323   1.312  1.00  0.00     0.014 A 
ATOM     19  C   UNL A   1      -0.137  -3.595   2.207  1.00  0.00     0.118 A 
ATOM     20  C   UNL A   1      -0.013  -1.169   2.030  1.00  0.00     0.128 A 
ATOM     21  C   UNL A   1       1.957  -0.106   0.820  1.00  0.00     0.050 C 
ATOM     22  C   UNL A   1      -0.698  -2.340   2.486  1.00  0.00     0.010 A 
ATOM     23  C   UNL A   1      -1.995  -2.330   3.255  1.00  0.00     0.050 C 
BRANCH  20  24
ATOM     24  O   UNL A   1      -0.439   0.113   2.234  1.00  0.00    -0.496 OA
ATOM     25  C   UNL A   1      -0.406   0.915   3.353  1.00  0.00     0.278 C 
ENDBRANCH  20  24
ENDBRANCH   1  16
TORSDOF 5
ENDMDL
MODEL 4
REMARK VINA RESULT:     0.000      3.740      5.648
REMARK INTER + INTRA:          -0.961
REMARK INTER:                   0.000
REMARK INTRA:                  -0.961
REMARK UNBOUND:                -0.961
REMARK SMILES COc1ccc2nc([S@@](=O)Cc3ncc(C)c(OC)c3C)[nH]c2c1
REMARK SMILES IDX 11 1 9 2 10 3 8 4 3 5 24 6 4 7 23 8 5 9 6 10 22 11 7 12 2 14
REMARK SMILES IDX 1 15 12 16 13 17 20 18 14 19 17 20 21 21 15 22 16 23 18 24
REMARK SMILES IDX 19 25
REMARK H PARENT 22 13
REMARK Flexibility Score: inf
ROOT
ATOM      1  C   UNL A   1      -2.045  -2.152   4.038  1.00  0.00     0.170 C 
ENDROOT
BRANCH   1   2
ATOM      2  S   UNL A   1      -2.205  -3.865   3.408  1.00  0.00     0.095 S 
ATOM      3  O   UNL A   1      -1.061  -4.400   4.285  1.00  0.00    -0.251 OA
BRANCH   2   4
ATOM      4  C   UNL A   1      -1.141  -3.606   1.980  1.00  0.00     0.197 A 
ATOM      5  C   UNL A   1       0.821  -2.927  -1.984  1.00  0.00     0.121 A 
ATOM      6  C   UNL A   1      -0.457  -3.095  -1.410  1.00  0.00     0.074 A 
ATOM      7  C   UNL A   1       1.976  -2.957  -1.146  1.00  0.00     0.049 A 
ATOM      8  C   UNL A   1      -0.534  -3.288  -0.034  1.00  0.00     0.070 A 
ATOM      9  C   UNL A   1       1.852  -3.155   0.243  1.00  0.00     0.034 A 
ATOM     10  C   UNL A   1       0.572  -3.318   0.760  1.00  0.00     0.090 A 
ATOM     11  N   UNL A   1      -1.624  -3.467   0.723  1.00  0.00    -0.331 N 
ATOM     12  N   UNL A   1       0.214  -3.520   2.041  1.00  0.00    -0.220 NA
ATOM     13  H   UNL A   1      -2.621  -3.493   0.416  1.00  0.00     0.169 HD
BRANCH   5  14
ATOM     14  O   UNL A   1       0.899  -2.742  -3.327  1.00  0.00    -0.497 OA
ATOM     15  C   UNL A   1      -0.160  -2.452  -4.161  1.00  0.00     0.278 C 
ENDBRANCH   5  14
ENDBRANCH   2   4
ENDBRANCH   1   2
BRANCH   1  16
ATOM     16  C   UNL A   1      -2.395  -1.159   2.954  1.00  0.00     0.060 A 
ATOM     17  N   UNL A   1      -3.625  -1.263   2.394  1.00  0.00    -0.259 NA
ATOM     18  C   UNL A   1      -1.512  -0.144   2.511  1.00  0.00     0.014 A 
ATOM     19  C   UNL A   1      -4.055  -0.439   1.414  1.00  0.00     0.118 A 
ATOM     20  C   UNL A   1      -1.928   0.745   1.484  1.00  0.00     0.128 A 
ATOM     21  C   UNL A   1      -0.138  -0.002   3.131  1.00  0.00     0.050 C 
ATOM     22  C   UNL A   1      -3.235   0.587   0.923  1.00  0.00     0.010 A 
ATOM     23  C   UNL A   1      -3.809   1.452  -0.171  1.00  0.00     0.050 C 
BRANCH  20  24
ATOM     24  O   UNL A   1      -1.028   1.702   1.107  1.00  0.00    -0.496 OA
ATOM     25  C   UNL A   1      -0.964   3.049   1.384  1.00  0.00     0.278 C 
ENDBRANCH  20  24
ENDBRANCH   1  16
TORSDOF 5
ENDMDL
MODEL 5
REMARK VINA RESULT:     0.000      2.984      5.439
REMARK INTER + INTRA:          -0.961
REMARK INTER:                   0.000
REMARK INTRA:                  -0.961
REMARK UNBOUND:                -0.961
REMARK SMILES COc1ccc2nc([S@@](=O)Cc3ncc(C)c(OC)c3C)[nH]c2c1
REMARK SMILES IDX 11 1 9 2 10 3 8 4 3 5 24 6 4 7 23 8 5 9 6 10 22 11 7 12 2 14
REMARK SMILES IDX 1 15 12 16 13 17 20 18 14 19 17 20 21 21 15 22 16 23 18 24
REMARK SMILES IDX 19 25
REMARK H PARENT 22 13
REMARK Flexibility Score: inf
ROOT
ATOM      1  C   UNL A   1      -4.278   1.082  -0.946  1.00  0.00     0.170 C 
ENDROOT
BRANCH   1   2
ATOM      2  S   UNL A   1      -3.630   2.589  -1.763  1.00  0.00     0.095 S 
ATOM      3  O   UNL A   1      -3.794   2.013  -3.179  1.00  0.00    -0.251 OA
BRANCH   2   4
ATOM      4  C   UNL A   1      -1.903   2.101  -1.641  1.00  0.00     0.197 A 
ATOM      5  C   UNL A   1       2.424   1.410  -0.734  1.00  0.00     0.121 A 
ATOM      6  C   UNL A   1       1.331   2.195  -0.313  1.00  0.00     0.074 A 
ATOM      7  C   UNL A   1       2.249   0.472  -1.795  1.00  0.00     0.049 A 
ATOM      8  C   UNL A   1       0.112   2.019  -0.963  1.00  0.00     0.070 A 
ATOM      9  C   UNL A   1       0.998   0.326  -2.425  1.00  0.00     0.034 A 
ATOM     10  C   UNL A   1      -0.049   1.123  -1.977  1.00  0.00     0.090 A 
ATOM     11  N   UNL A   1      -1.051   2.643  -0.739  1.00  0.00    -0.331 N 
ATOM     12  N   UNL A   1      -1.316   1.158  -2.424  1.00  0.00    -0.220 NA
ATOM     13  H   UNL A   1      -1.257   3.380  -0.029  1.00  0.00     0.169 HD
BRANCH   5  14
ATOM     14  O   UNL A   1       3.615   1.583  -0.103  1.00  0.00    -0.497 OA
ATOM     15  C   UNL A   1       3.806   2.272   1.077  1.00  0.00     0.278 C 
ENDBRANCH   5  14
ENDBRANCH   2   4
ENDBRANCH   1   2
BRANCH   1  16
ATOM     16  C   UNL A   1      -3.601   0.876   0.389  1.00  0.00     0.060 A 
ATOM     17  N   UNL A   1      -3.690   1.885   1.289  1.00  0.00    -0.259 NA
ATOM     18  C   UNL A   1      -2.896  -0.304   0.732  1.00  0.00     0.014 A 
ATOM     19  C   UNL A   1      -3.125   1.824   2.514  1.00  0.00     0.118 A 
ATOM     20  C   UNL A   1      -2.290  -0.408   2.012  1.00  0.00     0.128 A 
ATOM     21  C   UNL A   1      -2.794  -1.448  -0.254  1.00  0.00     0.050 C 
ATOM     22  C   UNL A   1      -2.410   0.690   2.923  1.00  0.00     0.010 A 
ATOM     23  C   UNL A   1      -1.818   0.721   4.310  1.00  0.00     0.050 C 
BRANCH  20  24
ATOM     24  O   UNL A   1      -1.629  -1.574   2.278  1.00  0.00    -0.496 OA
ATOM     25  C   UNL A   1      -1.977  -2.662   3.048  1.00  0.00     0.278 C 
ENDBRANCH  20  24
ENDBRANCH   1  16
TORSDOF 5
ENDMDL
MODEL 6
REMARK VINA RESULT:     0.000      3.219      4.791
REMARK INTER + INTRA:          -0.961
REMARK INTER:                   0.000
REMARK INTRA:                  -0.961
REMARK UNBOUND:                -0.961
REMARK SMILES COc1ccc2nc([S@@](=O)Cc3ncc(C)c(OC)c3C)[nH]c2c1
REMARK SMILES IDX 11 1 9 2 10 3 8 4 3 5 24 6 4 7 23 8 5 9 6 10 22 11 7 12 2 14
REMARK SMILES IDX 1 15 12 16 13 17 20 18 14 19 17 20 21 21 15 22 16 23 18 24
REMARK SMILES IDX 19 25
REMARK H PARENT 22 13
REMARK Flexibility Score: inf
ROOT
ATOM      1  C   UNL A   1      -2.900  -1.600  -3.175  1.00  0.00     0.170 C 
ENDROOT
BRANCH   1   2
ATOM      2  S   UNL A   1      -1.721  -2.573  -2.165  1.00  0.00     0.095 S 
ATOM      3  O   UNL A   1      -2.828  -3.219  -1.316  1.00  0.00    -0.251 OA
BRANCH   2   4
ATOM      4  C   UNL A   1      -1.416  -1.259  -0.974  1.00  0.00     0.197 A 
ATOM      5  C   UNL A   1       0.029   2.109   1.593  1.00  0.00     0.121 A 
ATOM      6  C   UNL A   1       0.431   1.321   0.495  1.00  0.00     0.074 A 
ATOM      7  C   UNL A   1      -1.243   1.875   2.198  1.00  0.00     0.049 A 
ATOM      8  C   UNL A   1      -0.442   0.334   0.045  1.00  0.00     0.070 A 
ATOM      9  C   UNL A   1      -2.096   0.865   1.710  1.00  0.00     0.034 A 
ATOM     10  C   UNL A   1      -1.654   0.114   0.627  1.00  0.00     0.090 A 
ATOM     11  N   UNL A   1      -0.280  -0.525  -0.968  1.00  0.00    -0.331 N 
ATOM     12  N   UNL A   1      -2.290  -0.892   0.001  1.00  0.00    -0.220 NA
ATOM     13  H   UNL A   1       0.538  -0.611  -1.612  1.00  0.00     0.169 HD
BRANCH   5  14
ATOM     14  O   UNL A   1       0.880   3.070   2.036  1.00  0.00    -0.497 OA
ATOM     15  C   UNL A   1       1.998   3.522   1.367  1.00  0.00     0.278 C 
ENDBRANCH   5  14
ENDBRANCH   2   4
ENDBRANCH   1   2
BRANCH   1  16
ATOM     16  C   UNL A   1      -2.280  -0.284  -3.583  1.00  0.00     0.060 A 
ATOM     17  N   UNL A   1      -1.115  -0.336  -4.273  1.00  0.00    -0.259 NA
ATOM     18  C   UNL A   1      -2.856   0.976  -3.284  1.00  0.00     0.014 A 
ATOM     19  C   UNL A   1      -0.461   0.769  -4.690  1.00  0.00     0.118 A 
ATOM     20  C   UNL A   1      -2.200   2.162  -3.708  1.00  0.00     0.128 A 
ATOM     21  C   UNL A   1      -4.164   1.058  -2.525  1.00  0.00     0.050 C 
ATOM     22  C   UNL A   1      -0.969   2.050  -4.429  1.00  0.00     0.010 A 
ATOM     23  C   UNL A   1      -0.163   3.219  -4.937  1.00  0.00     0.050 C 
BRANCH  20  24
ATOM     24  O   UNL A   1      -2.812   3.341  -3.389  1.00  0.00    -0.496 OA
ATOM     25  C   UNL A   1      -3.546   4.222  -4.153  1.00  0.00     0.278 C 
ENDBRANCH  20  24
ENDBRANCH   1  16
TORSDOF 5
ENDMDL
MODEL 7
REMARK VINA RESULT:     0.001      2.734      3.922
REMARK INTER + INTRA:          -0.960
REMARK INTER:                   0.000
REMARK INTRA:                  -0.960
REMARK UNBOUND:                -0.961
REMARK SMILES COc1ccc2nc([S@@](=O)Cc3ncc(C)c(OC)c3C)[nH]c2c1
REMARK SMILES IDX 11 1 9 2 10 3 8 4 3 5 24 6 4 7 23 8 5 9 6 10 22 11 7 12 2 14
REMARK SMILES IDX 1 15 12 16 13 17 20 18 14 19 17 20 21 21 15 22 16 23 18 24
REMARK SMILES IDX 19 25
REMARK H PARENT 22 13
REMARK Flexibility Score: inf
ROOT
ATOM      1  C   UNL A   1       0.115   0.778  -3.528  1.00  0.00     0.170 C 
ENDROOT
BRANCH   1   2
ATOM      2  S   UNL A   1      -1.287   1.727  -2.827  1.00  0.00     0.095 S 
ATOM      3  O   UNL A   1      -0.493   3.043  -2.764  1.00  0.00    -0.251 OA
BRANCH   2   4
ATOM      4  C   UNL A   1      -0.927   1.296  -1.118  1.00  0.00     0.197 A 
ATOM      5  C   UNL A   1      -0.642  -0.291   3.056  1.00  0.00     0.121 A 
ATOM      6  C   UNL A   1      -1.415  -0.429   1.884  1.00  0.00     0.074 A 
ATOM      7  C   UNL A   1       0.455   0.622   3.071  1.00  0.00     0.049 A 
ATOM      8  C   UNL A   1      -1.069   0.345   0.780  1.00  0.00     0.070 A 
ATOM      9  C   UNL A   1       0.769   1.386   1.930  1.00  0.00     0.034 A 
ATOM     10  C   UNL A   1      -0.023   1.216   0.801  1.00  0.00     0.090 A 
ATOM     11  N   UNL A   1      -1.649   0.384  -0.426  1.00  0.00    -0.331 N 
ATOM     12  N   UNL A   1       0.087   1.832  -0.390  1.00  0.00    -0.220 NA
ATOM     13  H   UNL A   1      -2.472  -0.166  -0.760  1.00  0.00     0.169 HD
BRANCH   5  14
ATOM     14  O   UNL A   1      -0.979  -1.043   4.136  1.00  0.00    -0.497 OA
ATOM     15  C   UNL A   1      -1.847  -2.115   4.129  1.00  0.00     0.278 C 
ENDBRANCH   5  14
ENDBRANCH   2   4
ENDBRANCH   1   2
BRANCH   1  16
ATOM     16  C   UNL A   1       0.075  -0.652  -3.043  1.00  0.00     0.060 A 
ATOM     17  N   UNL A   1      -1.051  -1.361  -3.298  1.00  0.00    -0.259 NA
ATOM     18  C   UNL A   1       1.145  -1.272  -2.350  1.00  0.00     0.014 A 
ATOM     19  C   UNL A   1      -1.211  -2.645  -2.914  1.00  0.00     0.118 A 
ATOM     20  C   UNL A   1       1.017  -2.622  -1.932  1.00  0.00     0.128 A 
ATOM     21  C   UNL A   1       2.418  -0.502  -2.065  1.00  0.00     0.050 C 
ATOM     22  C   UNL A   1      -0.197  -3.323  -2.222  1.00  0.00     0.010 A 
ATOM     23  C   UNL A   1      -0.474  -4.754  -1.837  1.00  0.00     0.050 C 
BRANCH  20  24
ATOM     24  O   UNL A   1       2.087  -3.157  -1.272  1.00  0.00    -0.496 OA
ATOM     25  C   UNL A   1       3.065  -4.035  -1.685  1.00  0.00     0.278 C 
ENDBRANCH  20  24
ENDBRANCH   1  16
TORSDOF 5
ENDMDL
MODEL 8
REMARK VINA RESULT:     0.001      2.783      4.909
REMARK INTER + INTRA:          -0.960
REMARK INTER:                   0.000
REMARK INTRA:                  -0.960
REMARK UNBOUND:                -0.961
REMARK SMILES COc1ccc2nc([S@@](=O)Cc3ncc(C)c(OC)c3C)[nH]c2c1
REMARK SMILES IDX 11 1 9 2 10 3 8 4 3 5 24 6 4 7 23 8 5 9 6 10 22 11 7 12 2 14
REMARK SMILES IDX 1 15 12 16 13 17 20 18 14 19 17 20 21 21 15 22 16 23 18 24
REMARK SMILES IDX 19 25
REMARK H PARENT 22 13
REMARK Flexibility Score: inf
ROOT
ATOM      1  C   UNL A   1      -1.847  -1.867  -0.445  1.00  0.00     0.170 C 
ENDROOT
BRANCH   1   2
ATOM      2  S   UNL A   1      -2.141  -0.848   1.049  1.00  0.00     0.095 S 
ATOM      3  O   UNL A   1      -3.421  -0.209   0.482  1.00  0.00    -0.251 OA
BRANCH   2   4
ATOM      4  C   UNL A   1      -1.091   0.513   0.519  1.00  0.00     0.197 A 
ATOM      5  C   UNL A   1       2.051   3.597  -0.280  1.00  0.00     0.121 A 
ATOM      6  C   UNL A   1       1.808   2.468   0.530  1.00  0.00     0.074 A 
ATOM      7  C   UNL A   1       1.055   4.023  -1.209  1.00  0.00     0.049 A 
ATOM      8  C   UNL A   1       0.589   1.812   0.385  1.00  0.00     0.070 A 
ATOM      9  C   UNL A   1      -0.166   3.329  -1.323  1.00  0.00     0.034 A 
ATOM     10  C   UNL A   1      -0.359   2.224  -0.502  1.00  0.00     0.090 A 
ATOM     11  N   UNL A   1       0.141   0.731   1.036  1.00  0.00    -0.331 N 
ATOM     12  N   UNL A   1      -1.434   1.418  -0.435  1.00  0.00    -0.220 NA
ATOM     13  H   UNL A   1       0.629   0.179   1.775  1.00  0.00     0.169 HD
BRANCH   5  14
ATOM     14  O   UNL A   1       3.238   4.241  -0.138  1.00  0.00    -0.497 OA
ATOM     15  C   UNL A   1       4.340   3.756   0.536  1.00  0.00     0.278 C 
ENDBRANCH   5  14
ENDBRANCH   2   4
ENDBRANCH   1   2
BRANCH   1  16
ATOM     16  C   UNL A   1      -0.364  -2.048  -0.673  1.00  0.00     0.060 A 
ATOM     17  N   UNL A   1       0.353  -2.603   0.334  1.00  0.00    -0.259 NA
ATOM     18  C   UNL A   1       0.293  -1.673  -1.871  1.00  0.00     0.014 A 
ATOM     19  C   UNL A   1       1.685  -2.813   0.254  1.00  0.00     0.118 A 
ATOM     20  C   UNL A   1       1.693  -1.880  -1.995  1.00  0.00     0.128 A 
ATOM     21  C   UNL A   1      -0.490  -1.061  -3.014  1.00  0.00     0.050 C 
ATOM     22  C   UNL A   1       2.403  -2.465  -0.899  1.00  0.00     0.010 A 
ATOM     23  C   UNL A   1       3.885  -2.741  -0.887  1.00  0.00     0.050 C 
BRANCH  20  24
ATOM     24  O   UNL A   1       2.261  -1.499  -3.178  1.00  0.00    -0.496 OA
ATOM     25  C   UNL A   1       2.690  -2.234  -4.260  1.00  0.00     0.278 C 
ENDBRANCH  20  24
ENDBRANCH   1  16
TORSDOF 5
ENDMDL
MODEL 9
REMARK VINA RESULT:     0.001      2.483      4.930
REMARK INTER + INTRA:          -0.960
REMARK INTER:                   0.000
REMARK INTRA:                  -0.960
REMARK UNBOUND:                -0.961
REMARK SMILES COc1ccc2nc([S@@](=O)Cc3ncc(C)c(OC)c3C)[nH]c2c1
REMARK SMILES IDX 11 1 9 2 10 3 8 4 3 5 24 6 4 7 23 8 5 9 6 10 22 11 7 12 2 14
REMARK SMILES IDX 1 15 12 16 13 17 20 18 14 19 17 20 21 21 15 22 16 23 18 24
REMARK SMILES IDX 19 25
REMARK H PARENT 22 13
REMARK Flexibility Score: inf
ROOT
ATOM      1  C   UNL A   1       2.139   0.028  -0.979  1.00  0.00     0.170 C 
ENDROOT
BRANCH   1   2
ATOM      2  S   UNL A   1       2.523   0.271   0.796  1.00  0.00     0.095 S 
ATOM      3  O   UNL A   1       2.392  -1.224   1.131  1.00  0.00    -0.251 OA
BRANCH   2   4
ATOM      4  C   UNL A   1       0.829   0.644   1.271  1.00  0.00     0.197 A 
ATOM      5  C   UNL A   1      -3.137   2.331   2.474  1.00  0.00     0.121 A 
ATOM      6  C   UNL A   1      -1.813   2.735   2.206  1.00  0.00     0.074 A 
ATOM      7  C   UNL A   1      -3.486   0.951   2.367  1.00  0.00     0.049 A 
ATOM      8  C   UNL A   1      -0.892   1.756   1.845  1.00  0.00     0.070 A 
ATOM      9  C   UNL A   1      -2.522  -0.007   1.998  1.00  0.00     0.034 A 
ATOM     10  C   UNL A   1      -1.230   0.440   1.746  1.00  0.00     0.090 A 
ATOM     11  N   UNL A   1       0.405   1.900   1.547  1.00  0.00    -0.331 N 
ATOM     12  N   UNL A   1      -0.157  -0.285   1.386  1.00  0.00    -0.220 NA
ATOM     13  H   UNL A   1       0.965   2.781   1.529  1.00  0.00     0.169 HD
BRANCH   5  14
ATOM     14  O   UNL A   1      -4.037   3.285   2.829  1.00  0.00    -0.497 OA
ATOM     15  C   UNL A   1      -3.852   4.647   2.713  1.00  0.00     0.278 C 
ENDBRANCH   5  14
ENDBRANCH   2   4
ENDBRANCH   1   2
BRANCH   1  16
ATOM     16  C   UNL A   1       1.404   1.229  -1.527  1.00  0.00     0.060 A 
ATOM     17  N   UNL A   1       2.016   2.432  -1.415  1.00  0.00    -0.259 NA
ATOM     18  C   UNL A   1       0.130   1.150  -2.143  1.00  0.00     0.014 A 
ATOM     19  C   UNL A   1       1.461   3.580  -1.862  1.00  0.00     0.118 A 
ATOM     20  C   UNL A   1      -0.485   2.334  -2.629  1.00  0.00     0.128 A 
ATOM     21  C   UNL A   1      -0.567  -0.186  -2.290  1.00  0.00     0.050 C 
ATOM     22  C   UNL A   1       0.203   3.580  -2.479  1.00  0.00     0.010 A 
ATOM     23  C   UNL A   1      -0.328   4.914  -2.942  1.00  0.00     0.050 C 
BRANCH  20  24
ATOM     24  O   UNL A   1      -1.711   2.185  -3.214  1.00  0.00    -0.496 OA
ATOM     25  C   UNL A   1      -2.095   2.193  -4.537  1.00  0.00     0.278 C 
ENDBRANCH  20  24
ENDBRANCH   1  16
TORSDOF 5
ENDMDL
